21
	Energy:      10.4140791
C         -7.63467        2.89151       -0.00439
C         -6.07806        2.86393        0.00211
C         -8.18704        4.31620        0.13740
C         -8.23937        2.02482        1.10756
H         -7.98862        2.49247       -0.96421
H         -5.72015        3.29601        0.94663
C         -5.48989        3.72382       -1.12898
C         -5.52261        1.43101       -0.09809
H         -5.86483        0.80415        0.72947
O         -4.09962        1.42752       -0.05482
H         -5.83257        0.95678       -1.03503
H         -3.83293        1.84136        0.78388
H         -7.79247        4.80582        1.03414
H         -9.28012        4.30640        0.21192
H         -7.93712        4.93278       -0.73084
H         -5.74720        4.77981       -1.00558
H         -5.85743        3.39223       -2.10599
H         -4.39630        3.67216       -1.14489
H         -7.83685        2.30065        2.08794
H         -8.04294        0.96195        0.93904
H         -9.32838        2.13955        1.14498
