4
Energy 0
C         1.9907         1.1351         0.0291
C         0.9290         0.0649         0.2929
C         -0.2633         0.2506         -0.6663
C         1.5571         -1.3242         0.1404
