21
	Energy:      10.3683512
C         -7.59869        2.91705       -0.10839
C         -6.04457        2.83328       -0.06182
C         -8.10583        4.34660        0.12465
C         -8.26684        1.99293        0.91758
H         -7.93692        2.60333       -1.10487
H         -5.69838        3.19333        0.91674
C         -5.39697        3.74056       -1.12157
C         -5.53476        1.39114       -0.23450
H         -5.91823        0.73736        0.55317
O         -4.11470        1.35539       -0.14446
H         -5.83217        0.98505       -1.20712
H         -3.84471        0.42859       -0.26092
H         -7.72423        4.75262        1.06757
H         -9.20045        4.37148        0.16540
H         -7.80664        5.01718       -0.68601
H         -5.62549        4.79494       -0.94126
H         -5.74523        3.48034       -2.12685
H         -4.30544        3.65517       -1.11047
H         -7.88332        2.17797        1.92648
H         -8.10429        0.93910        0.67282
H         -9.35160        2.14622        0.93494
