4
Energy 0
C         2.1550         0.8026         0.2676
C         0.8544         -0.0049         0.2833
C         -0.1935         0.6768         -0.6186
C         1.1371         -1.4463         -0.1421
