6
Energy 0
H         2.74552         0.8019         0.1328
C         -2.4408         0.1710         -0.1410
C         -1.0020         0.3219         0.3672
C         -0.0000         -0.7102         -0.2404
C         1.3725         -0.5702         0.2351
O         1.8754         0.6947         -0.1961
