2
Energy 0
C         1.3098         0.8818         -0.0000
C         2.7143         0.3185         -0.0206
