4
Energy 0
C         2.7144         0.3186         0.0206
C         1.3099         0.8818         0.0000
C         0.1052         -0.1705         0.0439
C         -1.1713         0.4468         0.0000
