2
Energy 0
C         1.6036         1.0057         0.2873
C         2.3579         -0.2971         0.2942
