2
Energy 0
C         0.2274         0.9677         0.4478
C         0.7919         -0.2056         0.3090
