6
Energy 0
C         2.4772         0.5929         0.0000
C         0.9882         0.6209         0.3424
C         0.2107         -0.6946         -0.0000
C         -1.2007         -0.6800         0.3909
C         -2.0474         0.3197         -0.4061
C         -3.5379         0.2252         -0.0837
