3
Energy 0
C         2.4771         0.5928         0.0000
C         0.9882         0.6208         0.3424
C         0.2107         -0.6946         -0.0000
