3
Energy 0
C         2.5808         0.0993         0.1461
C         1.2851         0.8802         0.2597
C         0.0000         -0.1332         0.1168
