5
Energy 0
C         2.5809         0.0993         0.1461
C         1.2852         0.8803         0.2597
C         -0.0000         0.1332         -0.1168
C         -1.2202         0.9228         0.0000
C         -2.4957         0.1849         -0.4559
