12
	Energy:       1.1697669
C         -5.42956        2.04236       -0.14426
C         -3.90891        2.04198       -0.10861
H         -5.84347        2.61041        0.69619
H         -5.82806        1.02394       -0.10858
H         -5.78911        2.52698       -1.05835
C         -3.37169        1.40203        1.16241
O         -3.43767        3.38341       -0.19340
H         -3.52309        1.50323       -0.98025
H         -3.70959        1.94643        2.05113
H         -2.27690        1.43411        1.17179
H         -3.69160        0.35916        1.24800
H         -3.77645        3.86901        0.57811
