13
	Energy:      18.4211497
C         -2.14332        0.12346       -0.05450
C         -0.63701        0.24711       -0.20930
H         -2.50897       -0.77174       -0.56891
H         -2.65710        0.99615       -0.46884
H         -2.42276        0.01700        0.99926
H         -0.36112        0.29258       -1.26859
O          0.00025       -0.91263        0.34000
C         -0.08887        1.47480        0.52165
H         -0.54957        2.39772        0.15794
O          1.31988        1.56019        0.30638
H         -0.24947        1.39702        1.60209
H          1.65522        0.65973        0.48702
H         -0.36623       -1.68884       -0.12007
