3
Energy 0
C         0.7062         0.7202         0.2487
C         -0.4929         0.0000         -0.3406
C         -1.8005         0.7072         -0.0000
