3
Energy 0
C         0.9042         0.0924         0.7044
C         -0.5952         0.0000         0.4820
C         -1.1687         1.1713         -0.2832
