12
	Energy:       0.9966764
C         -5.37993        2.05801       -0.13018
C         -3.86325        2.01151       -0.03718
H         -5.80911        2.60830        0.71451
H         -5.80893        1.05157       -0.14817
H         -5.69035        2.58587       -1.03844
C         -3.40161        1.30180        1.22653
O         -3.37513        3.34923       -0.03164
H         -3.45768        1.50630       -0.92034
H         -3.74860        1.82910        2.12199
H         -2.30760        1.28362        1.27724
H         -3.76802        0.27133        1.26056
H         -2.40501        3.30743        0.01930
