13
	Energy:      19.5117053
C         -2.12929       -2.15420        2.95186
C         -1.84323       -2.94562        4.21691
H         -1.57192       -3.98059        3.98137
H         -2.73709       -2.99108        4.84811
H         -1.03029       -2.49333        4.79273
O         -1.25291       -1.35775        0.84507
O         -3.21948       -2.75475        2.24091
H         -3.01902       -3.70086        2.12852
C         -0.91630       -2.09452        2.01966
H         -2.18593       -1.57711        0.65084
H         -0.61833       -3.09783        1.69842
H         -0.06353       -1.60782        2.50173
H         -2.37287       -1.15685        3.25330
