13
	Energy:      23.1000692
C         -1.82221       -1.98307        2.54801
C         -2.31520       -2.91613        3.64692
H         -2.26369       -3.96197        3.32524
H         -3.36440       -2.70841        3.88270
H         -1.72486       -2.80359        4.56125
O          0.52564       -2.33220        3.16398
O         -2.71879       -2.03926        1.44029
H         -2.83446       -2.97500        1.19759
C         -0.39920       -2.31848        2.08530
H          0.54407       -1.43686        3.54500
H         -0.37530       -3.29966        1.59832
H         -0.06002       -1.59236        1.33795
H         -1.84101       -0.95764        2.93371
